 Gaussian 09, Revision D.01,
 Gaussian 09:  EM64L-G09RevD.01 24-Apr-2013

 ----------------------
 #HF/6-31G** guess=save
 ----------------------

 --
 H2
 --
 Symbolic Z-matrix:
 Charge =  0 Multiplicity = 1

                         Standard orientation:
 ---------------------------------------------------------------------
 Center     Atomic      Atomic             Coordinates (Angstroms)
 Number     Number       Type             X           Y           Z
 ---------------------------------------------------------------------
      1          1           0        0.000000    0.000000    0.370000
      2          1           0        0.000000    0.000000   -0.370000
 ---------------------------------------------------------------------

 SCF Done:  E(RHF) =  -1.13129385110     A.U. after    5 cycles

 The electronic state is 1-SGG.
 Alpha  occ. eigenvalues --   -0.59492
 Alpha virt. eigenvalues --    0.23954   0.77118   1.31055   1.95919   1.95919
 Alpha virt. eigenvalues --    2.70626   2.93114   2.93114   4.53466

 Mulliken charges:
               1
     1  H    0.000000
     2  H    0.000000
 Sum of Mulliken charges =   0.00000

 Dipole moment (field-independent basis, Debye):
    X=              0.0000    Y=              0.0000    Z=              0.0000  Tot=              0.0000
 Quadrupole moment (field-independent basis, Debye-Ang):
   XX=             -2.0607   YY=             -2.0607   ZZ=             -1.5222
   XY=              0.0000   XZ=              0.0000   YZ=              0.0000

 Normal termination of Gaussian 09 at Sat Oct  7 11:21:46 2023.
